
16250 atoms 
15600 bonds

2	 atom types
1	 bond types

-32 32 xlo xhi
-32 32 ylo yhi
-50 50 zlo zhi

Masses 

1	1.0 
2	1.0 


Atoms 
 
	1	1	2	8.03	-7.53	23.20
	2	1	1	8.78	-7.53	23.20
	3	1	1	9.53	-7.53	23.20
	4	1	1	10.28	-7.53	23.20
	5	1	1	11.03	-7.53	23.20
	6	1	1	11.78	-7.53	23.20
	7	1	1	12.53	-7.53	23.20
	8	1	1	13.28	-7.53	23.20
	9	1	1	14.03	-7.53	23.20
	10	1	1	14.78	-7.53	23.20
	11	1	1	15.53	-7.53	23.20
	12	1	1	16.28	-7.53	23.20
	13	1	1	17.03	-7.53	23.20
	14	1	1	17.78	-7.53	23.20
	15	1	1	18.53	-7.53	23.20
	16	1	1	19.28	-7.53	23.20
	17	1	1	20.03	-7.53	23.20
	18	1	1	20.78	-7.53	23.20
	19	1	1	21.53	-7.53	23.20
	20	1	1	22.28	-7.53	23.20
	21	1	1	23.03	-7.53	23.20
	22	1	1	23.78	-7.53	23.20
	23	1	1	24.53	-7.53	23.20
	24	1	1	25.28	-7.53	23.20
	25	1	1	26.03	-7.53	23.20
	26	2	2	-23.76	5.92	-34.40
	27	2	1	-23.01	5.92	-34.40
	28	2	1	-22.26	5.92	-34.40
	29	2	1	-21.51	5.92	-34.40
	30	2	1	-20.76	5.92	-34.40
	31	2	1	-20.01	5.92	-34.40
	32	2	1	-19.26	5.92	-34.40
	33	2	1	-18.51	5.92	-34.40
	34	2	1	-17.76	5.92	-34.40
	35	2	1	-17.01	5.92	-34.40
	36	2	1	-16.26	5.92	-34.40
	37	2	1	-15.51	5.92	-34.40
	38	2	1	-14.76	5.92	-34.40
	39	2	1	-14.01	5.92	-34.40
	40	2	1	-13.26	5.92	-34.40
	41	2	1	-12.51	5.92	-34.40
	42	2	1	-11.76	5.92	-34.40
	43	2	1	-11.01	5.92	-34.40
	44	2	1	-10.26	5.92	-34.40
	45	2	1	-9.51	5.92	-34.40
	46	2	1	-8.76	5.92	-34.40
	47	2	1	-8.01	5.92	-34.40
	48	2	1	-7.26	5.92	-34.40
	49	2	1	-6.51	5.92	-34.40
	50	2	1	-5.76	5.92	-34.40
	51	3	2	4.65	-26.51	10.11
	52	3	1	5.40	-26.51	10.11
	53	3	1	6.15	-26.51	10.11
	54	3	1	6.90	-26.51	10.11
	55	3	1	7.65	-26.51	10.11
	56	3	1	8.40	-26.51	10.11
	57	3	1	9.15	-26.51	10.11
	58	3	1	9.90	-26.51	10.11
	59	3	1	10.65	-26.51	10.11
	60	3	1	11.40	-26.51	10.11
	61	3	1	12.15	-26.51	10.11
	62	3	1	12.90	-26.51	10.11
	63	3	1	13.65	-26.51	10.11
	64	3	1	14.40	-26.51	10.11
	65	3	1	15.15	-26.51	10.11
	66	3	1	15.90	-26.51	10.11
	67	3	1	16.65	-26.51	10.11
	68	3	1	17.40	-26.51	10.11
	69	3	1	18.15	-26.51	10.11
	70	3	1	18.90	-26.51	10.11
	71	3	1	19.65	-26.51	10.11
	72	3	1	20.40	-26.51	10.11
	73	3	1	21.15	-26.51	10.11
	74	3	1	21.90	-26.51	10.11
	75	3	1	22.65	-26.51	10.11
	76	4	2	-29.18	12.48	46.99
	77	4	1	-28.43	12.48	46.99
	78	4	1	-27.68	12.48	46.99
	79	4	1	-26.93	12.48	46.99
	80	4	1	-26.18	12.48	46.99
	81	4	1	-25.43	12.48	46.99
	82	4	1	-24.68	12.48	46.99
	83	4	1	-23.93	12.48	46.99
	84	4	1	-23.18	12.48	46.99
	85	4	1	-22.43	12.48	46.99
	86	4	1	-21.68	12.48	46.99
	87	4	1	-20.93	12.48	46.99
	88	4	1	-20.18	12.48	46.99
	89	4	1	-19.43	12.48	46.99
	90	4	1	-18.68	12.48	46.99
	91	4	1	-17.93	12.48	46.99
	92	4	1	-17.18	12.48	46.99
	93	4	1	-16.43	12.48	46.99
	94	4	1	-15.68	12.48	46.99
	95	4	1	-14.93	12.48	46.99
	96	4	1	-14.18	12.48	46.99
	97	4	1	-13.43	12.48	46.99
	98	4	1	-12.68	12.48	46.99
	99	4	1	-11.93	12.48	46.99
	100	4	1	-11.18	12.48	46.99
	101	5	2	-21.51	19.95	-31.82
	102	5	1	-20.76	19.95	-31.82
	103	5	1	-20.01	19.95	-31.82
	104	5	1	-19.26	19.95	-31.82
	105	5	1	-18.51	19.95	-31.82
	106	5	1	-17.76	19.95	-31.82
	107	5	1	-17.01	19.95	-31.82
	108	5	1	-16.26	19.95	-31.82
	109	5	1	-15.51	19.95	-31.82
	110	5	1	-14.76	19.95	-31.82
	111	5	1	-14.01	19.95	-31.82
	112	5	1	-13.26	19.95	-31.82
	113	5	1	-12.51	19.95	-31.82
	114	5	1	-11.76	19.95	-31.82
	115	5	1	-11.01	19.95	-31.82
	116	5	1	-10.26	19.95	-31.82
	117	5	1	-9.51	19.95	-31.82
	118	5	1	-8.76	19.95	-31.82
	119	5	1	-8.01	19.95	-31.82
	120	5	1	-7.26	19.95	-31.82
	121	5	1	-6.51	19.95	-31.82
	122	5	1	-5.76	19.95	-31.82
	123	5	1	-5.01	19.95	-31.82
	124	5	1	-4.26	19.95	-31.82
	125	5	1	-3.51	19.95	-31.82
	126	6	2	-17.83	-19.00	2.48
	127	6	1	-17.08	-19.00	2.48
	128	6	1	-16.33	-19.00	2.48
	129	6	1	-15.58	-19.00	2.48
	130	6	1	-14.83	-19.00	2.48
	131	6	1	-14.08	-19.00	2.48
	132	6	1	-13.33	-19.00	2.48
	133	6	1	-12.58	-19.00	2.48
	134	6	1	-11.83	-19.00	2.48
	135	6	1	-11.08	-19.00	2.48
	136	6	1	-10.33	-19.00	2.48
	137	6	1	-9.58	-19.00	2.48
	138	6	1	-8.83	-19.00	2.48
	139	6	1	-8.08	-19.00	2.48
	140	6	1	-7.33	-19.00	2.48
	141	6	1	-6.58	-19.00	2.48
	142	6	1	-5.83	-19.00	2.48
	143	6	1	-5.08	-19.00	2.48
	144	6	1	-4.33	-19.00	2.48
	145	6	1	-3.58	-19.00	2.48
	146	6	1	-2.83	-19.00	2.48
	147	6	1	-2.08	-19.00	2.48
	148	6	1	-1.33	-19.00	2.48
	149	6	1	-0.58	-19.00	2.48
	150	6	1	0.17	-19.00	2.48
	151	7	2	-18.35	-4.08	11.19
	152	7	1	-17.60	-4.08	11.19
	153	7	1	-16.85	-4.08	11.19
	154	7	1	-16.10	-4.08	11.19
	155	7	1	-15.35	-4.08	11.19
	156	7	1	-14.60	-4.08	11.19
	157	7	1	-13.85	-4.08	11.19
	158	7	1	-13.10	-4.08	11.19
	159	7	1	-12.35	-4.08	11.19
	160	7	1	-11.60	-4.08	11.19
	161	7	1	-10.85	-4.08	11.19
	162	7	1	-10.10	-4.08	11.19
	163	7	1	-9.35	-4.08	11.19
	164	7	1	-8.60	-4.08	11.19
	165	7	1	-7.85	-4.08	11.19
	166	7	1	-7.10	-4.08	11.19
	167	7	1	-6.35	-4.08	11.19
	168	7	1	-5.60	-4.08	11.19
	169	7	1	-4.85	-4.08	11.19
	170	7	1	-4.10	-4.08	11.19
	171	7	1	-3.35	-4.08	11.19
	172	7	1	-2.60	-4.08	11.19
	173	7	1	-1.85	-4.08	11.19
	174	7	1	-1.10	-4.08	11.19
	175	7	1	-0.35	-4.08	11.19
	176	8	2	-18.31	-21.63	-13.36
	177	8	1	-17.56	-21.63	-13.36
	178	8	1	-16.81	-21.63	-13.36
	179	8	1	-16.06	-21.63	-13.36
	180	8	1	-15.31	-21.63	-13.36
	181	8	1	-14.56	-21.63	-13.36
	182	8	1	-13.81	-21.63	-13.36
	183	8	1	-13.06	-21.63	-13.36
	184	8	1	-12.31	-21.63	-13.36
	185	8	1	-11.56	-21.63	-13.36
	186	8	1	-10.81	-21.63	-13.36
	187	8	1	-10.06	-21.63	-13.36
	188	8	1	-9.31	-21.63	-13.36
	189	8	1	-8.56	-21.63	-13.36
	190	8	1	-7.81	-21.63	-13.36
	191	8	1	-7.06	-21.63	-13.36
	192	8	1	-6.31	-21.63	-13.36
	193	8	1	-5.56	-21.63	-13.36
	194	8	1	-4.81	-21.63	-13.36
	195	8	1	-4.06	-21.63	-13.36
	196	8	1	-3.31	-21.63	-13.36
	197	8	1	-2.56	-21.63	-13.36
	198	8	1	-1.81	-21.63	-13.36
	199	8	1	-1.06	-21.63	-13.36
	200	8	1	-0.31	-21.63	-13.36
	201	9	2	1.41	-2.64	-30.03
	202	9	1	2.16	-2.64	-30.03
	203	9	1	2.91	-2.64	-30.03
	204	9	1	3.66	-2.64	-30.03
	205	9	1	4.41	-2.64	-30.03
	206	9	1	5.16	-2.64	-30.03
	207	9	1	5.91	-2.64	-30.03
	208	9	1	6.66	-2.64	-30.03
	209	9	1	7.41	-2.64	-30.03
	210	9	1	8.16	-2.64	-30.03
	211	9	1	8.91	-2.64	-30.03
	212	9	1	9.66	-2.64	-30.03
	213	9	1	10.41	-2.64	-30.03
	214	9	1	11.16	-2.64	-30.03
	215	9	1	11.91	-2.64	-30.03
	216	9	1	12.66	-2.64	-30.03
	217	9	1	13.41	-2.64	-30.03
	218	9	1	14.16	-2.64	-30.03
	219	9	1	14.91	-2.64	-30.03
	220	9	1	15.66	-2.64	-30.03
	221	9	1	16.41	-2.64	-30.03
	222	9	1	17.16	-2.64	-30.03
	223	9	1	17.91	-2.64	-30.03
	224	9	1	18.66	-2.64	-30.03
	225	9	1	19.41	-2.64	-30.03
	226	10	2	-6.30	0.85	-45.35
	227	10	1	-5.55	0.85	-45.35
	228	10	1	-4.80	0.85	-45.35
	229	10	1	-4.05	0.85	-45.35
	230	10	1	-3.30	0.85	-45.35
	231	10	1	-2.55	0.85	-45.35
	232	10	1	-1.80	0.85	-45.35
	233	10	1	-1.05	0.85	-45.35
	234	10	1	-0.30	0.85	-45.35
	235	10	1	0.45	0.85	-45.35
	236	10	1	1.20	0.85	-45.35
	237	10	1	1.95	0.85	-45.35
	238	10	1	2.70	0.85	-45.35
	239	10	1	3.45	0.85	-45.35
	240	10	1	4.20	0.85	-45.35
	241	10	1	4.95	0.85	-45.35
	242	10	1	5.70	0.85	-45.35
	243	10	1	6.45	0.85	-45.35
	244	10	1	7.20	0.85	-45.35
	245	10	1	7.95	0.85	-45.35
	246	10	1	8.70	0.85	-45.35
	247	10	1	9.45	0.85	-45.35
	248	10	1	10.20	0.85	-45.35
	249	10	1	10.95	0.85	-45.35
	250	10	1	11.70	0.85	-45.35
	251	11	2	-23.18	6.45	-43.49
	252	11	1	-22.43	6.45	-43.49
	253	11	1	-21.68	6.45	-43.49
	254	11	1	-20.93	6.45	-43.49
	255	11	1	-20.18	6.45	-43.49
	256	11	1	-19.43	6.45	-43.49
	257	11	1	-18.68	6.45	-43.49
	258	11	1	-17.93	6.45	-43.49
	259	11	1	-17.18	6.45	-43.49
	260	11	1	-16.43	6.45	-43.49
	261	11	1	-15.68	6.45	-43.49
	262	11	1	-14.93	6.45	-43.49
	263	11	1	-14.18	6.45	-43.49
	264	11	1	-13.43	6.45	-43.49
	265	11	1	-12.68	6.45	-43.49
	266	11	1	-11.93	6.45	-43.49
	267	11	1	-11.18	6.45	-43.49
	268	11	1	-10.43	6.45	-43.49
	269	11	1	-9.68	6.45	-43.49
	270	11	1	-8.93	6.45	-43.49
	271	11	1	-8.18	6.45	-43.49
	272	11	1	-7.43	6.45	-43.49
	273	11	1	-6.68	6.45	-43.49
	274	11	1	-5.93	6.45	-43.49
	275	11	1	-5.18	6.45	-43.49
	276	12	2	8.63	26.93	30.84
	277	12	1	9.38	26.93	30.84
	278	12	1	10.13	26.93	30.84
	279	12	1	10.88	26.93	30.84
	280	12	1	11.63	26.93	30.84
	281	12	1	12.38	26.93	30.84
	282	12	1	13.13	26.93	30.84
	283	12	1	13.88	26.93	30.84
	284	12	1	14.63	26.93	30.84
	285	12	1	15.38	26.93	30.84
	286	12	1	16.13	26.93	30.84
	287	12	1	16.88	26.93	30.84
	288	12	1	17.63	26.93	30.84
	289	12	1	18.38	26.93	30.84
	290	12	1	19.13	26.93	30.84
	291	12	1	19.88	26.93	30.84
	292	12	1	20.63	26.93	30.84
	293	12	1	21.38	26.93	30.84
	294	12	1	22.13	26.93	30.84
	295	12	1	22.88	26.93	30.84
	296	12	1	23.63	26.93	30.84
	297	12	1	24.38	26.93	30.84
	298	12	1	25.13	26.93	30.84
	299	12	1	25.88	26.93	30.84
	300	12	1	26.63	26.93	30.84
	301	13	2	-26.09	-11.72	18.42
	302	13	1	-25.34	-11.72	18.42
	303	13	1	-24.59	-11.72	18.42
	304	13	1	-23.84	-11.72	18.42
	305	13	1	-23.09	-11.72	18.42
	306	13	1	-22.34	-11.72	18.42
	307	13	1	-21.59	-11.72	18.42
	308	13	1	-20.84	-11.72	18.42
	309	13	1	-20.09	-11.72	18.42
	310	13	1	-19.34	-11.72	18.42
	311	13	1	-18.59	-11.72	18.42
	312	13	1	-17.84	-11.72	18.42
	313	13	1	-17.09	-11.72	18.42
	314	13	1	-16.34	-11.72	18.42
	315	13	1	-15.59	-11.72	18.42
	316	13	1	-14.84	-11.72	18.42
	317	13	1	-14.09	-11.72	18.42
	318	13	1	-13.34	-11.72	18.42
	319	13	1	-12.59	-11.72	18.42
	320	13	1	-11.84	-11.72	18.42
	321	13	1	-11.09	-11.72	18.42
	322	13	1	-10.34	-11.72	18.42
	323	13	1	-9.59	-11.72	18.42
	324	13	1	-8.84	-11.72	18.42
	325	13	1	-8.09	-11.72	18.42
	326	14	2	-25.12	-3.59	-0.48
	327	14	1	-24.37	-3.59	-0.48
	328	14	1	-23.62	-3.59	-0.48
	329	14	1	-22.87	-3.59	-0.48
	330	14	1	-22.12	-3.59	-0.48
	331	14	1	-21.37	-3.59	-0.48
	332	14	1	-20.62	-3.59	-0.48
	333	14	1	-19.87	-3.59	-0.48
	334	14	1	-19.12	-3.59	-0.48
	335	14	1	-18.37	-3.59	-0.48
	336	14	1	-17.62	-3.59	-0.48
	337	14	1	-16.87	-3.59	-0.48
	338	14	1	-16.12	-3.59	-0.48
	339	14	1	-15.37	-3.59	-0.48
	340	14	1	-14.62	-3.59	-0.48
	341	14	1	-13.87	-3.59	-0.48
	342	14	1	-13.12	-3.59	-0.48
	343	14	1	-12.37	-3.59	-0.48
	344	14	1	-11.62	-3.59	-0.48
	345	14	1	-10.87	-3.59	-0.48
	346	14	1	-10.12	-3.59	-0.48
	347	14	1	-9.37	-3.59	-0.48
	348	14	1	-8.62	-3.59	-0.48
	349	14	1	-7.87	-3.59	-0.48
	350	14	1	-7.12	-3.59	-0.48
	351	15	2	6.37	-27.94	-24.12
	352	15	1	7.12	-27.94	-24.12
	353	15	1	7.87	-27.94	-24.12
	354	15	1	8.62	-27.94	-24.12
	355	15	1	9.37	-27.94	-24.12
	356	15	1	10.12	-27.94	-24.12
	357	15	1	10.87	-27.94	-24.12
	358	15	1	11.62	-27.94	-24.12
	359	15	1	12.37	-27.94	-24.12
	360	15	1	13.12	-27.94	-24.12
	361	15	1	13.87	-27.94	-24.12
	362	15	1	14.62	-27.94	-24.12
	363	15	1	15.37	-27.94	-24.12
	364	15	1	16.12	-27.94	-24.12
	365	15	1	16.87	-27.94	-24.12
	366	15	1	17.62	-27.94	-24.12
	367	15	1	18.37	-27.94	-24.12
	368	15	1	19.12	-27.94	-24.12
	369	15	1	19.87	-27.94	-24.12
	370	15	1	20.62	-27.94	-24.12
	371	15	1	21.37	-27.94	-24.12
	372	15	1	22.12	-27.94	-24.12
	373	15	1	22.87	-27.94	-24.12
	374	15	1	23.62	-27.94	-24.12
	375	15	1	24.37	-27.94	-24.12
	376	16	2	-17.53	9.75	2.01
	377	16	1	-16.78	9.75	2.01
	378	16	1	-16.03	9.75	2.01
	379	16	1	-15.28	9.75	2.01
	380	16	1	-14.53	9.75	2.01
	381	16	1	-13.78	9.75	2.01
	382	16	1	-13.03	9.75	2.01
	383	16	1	-12.28	9.75	2.01
	384	16	1	-11.53	9.75	2.01
	385	16	1	-10.78	9.75	2.01
	386	16	1	-10.03	9.75	2.01
	387	16	1	-9.28	9.75	2.01
	388	16	1	-8.53	9.75	2.01
	389	16	1	-7.78	9.75	2.01
	390	16	1	-7.03	9.75	2.01
	391	16	1	-6.28	9.75	2.01
	392	16	1	-5.53	9.75	2.01
	393	16	1	-4.78	9.75	2.01
	394	16	1	-4.03	9.75	2.01
	395	16	1	-3.28	9.75	2.01
	396	16	1	-2.53	9.75	2.01
	397	16	1	-1.78	9.75	2.01
	398	16	1	-1.03	9.75	2.01
	399	16	1	-0.28	9.75	2.01
	400	16	1	0.47	9.75	2.01
	401	17	2	-22.61	2.80	46.96
	402	17	1	-21.86	2.80	46.96
	403	17	1	-21.11	2.80	46.96
	404	17	1	-20.36	2.80	46.96
	405	17	1	-19.61	2.80	46.96
	406	17	1	-18.86	2.80	46.96
	407	17	1	-18.11	2.80	46.96
	408	17	1	-17.36	2.80	46.96
	409	17	1	-16.61	2.80	46.96
	410	17	1	-15.86	2.80	46.96
	411	17	1	-15.11	2.80	46.96
	412	17	1	-14.36	2.80	46.96
	413	17	1	-13.61	2.80	46.96
	414	17	1	-12.86	2.80	46.96
	415	17	1	-12.11	2.80	46.96
	416	17	1	-11.36	2.80	46.96
	417	17	1	-10.61	2.80	46.96
	418	17	1	-9.86	2.80	46.96
	419	17	1	-9.11	2.80	46.96
	420	17	1	-8.36	2.80	46.96
	421	17	1	-7.61	2.80	46.96
	422	17	1	-6.86	2.80	46.96
	423	17	1	-6.11	2.80	46.96
	424	17	1	-5.36	2.80	46.96
	425	17	1	-4.61	2.80	46.96
	426	18	2	7.58	16.51	39.48
	427	18	1	8.33	16.51	39.48
	428	18	1	9.08	16.51	39.48
	429	18	1	9.83	16.51	39.48
	430	18	1	10.58	16.51	39.48
	431	18	1	11.33	16.51	39.48
	432	18	1	12.08	16.51	39.48
	433	18	1	12.83	16.51	39.48
	434	18	1	13.58	16.51	39.48
	435	18	1	14.33	16.51	39.48
	436	18	1	15.08	16.51	39.48
	437	18	1	15.83	16.51	39.48
	438	18	1	16.58	16.51	39.48
	439	18	1	17.33	16.51	39.48
	440	18	1	18.08	16.51	39.48
	441	18	1	18.83	16.51	39.48
	442	18	1	19.58	16.51	39.48
	443	18	1	20.33	16.51	39.48
	444	18	1	21.08	16.51	39.48
	445	18	1	21.83	16.51	39.48
	446	18	1	22.58	16.51	39.48
	447	18	1	23.33	16.51	39.48
	448	18	1	24.08	16.51	39.48
	449	18	1	24.83	16.51	39.48
	450	18	1	25.58	16.51	39.48
	451	19	2	6.87	5.87	-41.15
	452	19	1	7.62	5.87	-41.15
	453	19	1	8.37	5.87	-41.15
	454	19	1	9.12	5.87	-41.15
	455	19	1	9.87	5.87	-41.15
	456	19	1	10.62	5.87	-41.15
	457	19	1	11.37	5.87	-41.15
	458	19	1	12.12	5.87	-41.15
	459	19	1	12.87	5.87	-41.15
	460	19	1	13.62	5.87	-41.15
	461	19	1	14.37	5.87	-41.15
	462	19	1	15.12	5.87	-41.15
	463	19	1	15.87	5.87	-41.15
	464	19	1	16.62	5.87	-41.15
	465	19	1	17.37	5.87	-41.15
	466	19	1	18.12	5.87	-41.15
	467	19	1	18.87	5.87	-41.15
	468	19	1	19.62	5.87	-41.15
	469	19	1	20.37	5.87	-41.15
	470	19	1	21.12	5.87	-41.15
	471	19	1	21.87	5.87	-41.15
	472	19	1	22.62	5.87	-41.15
	473	19	1	23.37	5.87	-41.15
	474	19	1	24.12	5.87	-41.15
	475	19	1	24.87	5.87	-41.15
	476	20	2	-28.19	-18.24	-17.47
	477	20	1	-27.44	-18.24	-17.47
	478	20	1	-26.69	-18.24	-17.47
	479	20	1	-25.94	-18.24	-17.47
	480	20	1	-25.19	-18.24	-17.47
	481	20	1	-24.44	-18.24	-17.47
	482	20	1	-23.69	-18.24	-17.47
	483	20	1	-22.94	-18.24	-17.47
	484	20	1	-22.19	-18.24	-17.47
	485	20	1	-21.44	-18.24	-17.47
	486	20	1	-20.69	-18.24	-17.47
	487	20	1	-19.94	-18.24	-17.47
	488	20	1	-19.19	-18.24	-17.47
	489	20	1	-18.44	-18.24	-17.47
	490	20	1	-17.69	-18.24	-17.47
	491	20	1	-16.94	-18.24	-17.47
	492	20	1	-16.19	-18.24	-17.47
	493	20	1	-15.44	-18.24	-17.47
	494	20	1	-14.69	-18.24	-17.47
	495	20	1	-13.94	-18.24	-17.47
	496	20	1	-13.19	-18.24	-17.47
	497	20	1	-12.44	-18.24	-17.47
	498	20	1	-11.69	-18.24	-17.47
	499	20	1	-10.94	-18.24	-17.47
	500	20	1	-10.19	-18.24	-17.47
	501	21	2	-19.15	-6.68	32.87
	502	21	1	-18.40	-6.68	32.87
	503	21	1	-17.65	-6.68	32.87
	504	21	1	-16.90	-6.68	32.87
	505	21	1	-16.15	-6.68	32.87
	506	21	1	-15.40	-6.68	32.87
	507	21	1	-14.65	-6.68	32.87
	508	21	1	-13.90	-6.68	32.87
	509	21	1	-13.15	-6.68	32.87
	510	21	1	-12.40	-6.68	32.87
	511	21	1	-11.65	-6.68	32.87
	512	21	1	-10.90	-6.68	32.87
	513	21	1	-10.15	-6.68	32.87
	514	21	1	-9.40	-6.68	32.87
	515	21	1	-8.65	-6.68	32.87
	516	21	1	-7.90	-6.68	32.87
	517	21	1	-7.15	-6.68	32.87
	518	21	1	-6.40	-6.68	32.87
	519	21	1	-5.65	-6.68	32.87
	520	21	1	-4.90	-6.68	32.87
	521	21	1	-4.15	-6.68	32.87
	522	21	1	-3.40	-6.68	32.87
	523	21	1	-2.65	-6.68	32.87
	524	21	1	-1.90	-6.68	32.87
	525	21	1	-1.15	-6.68	32.87
	526	22	2	-18.76	-8.59	4.27
	527	22	1	-18.01	-8.59	4.27
	528	22	1	-17.26	-8.59	4.27
	529	22	1	-16.51	-8.59	4.27
	530	22	1	-15.76	-8.59	4.27
	531	22	1	-15.01	-8.59	4.27
	532	22	1	-14.26	-8.59	4.27
	533	22	1	-13.51	-8.59	4.27
	534	22	1	-12.76	-8.59	4.27
	535	22	1	-12.01	-8.59	4.27
	536	22	1	-11.26	-8.59	4.27
	537	22	1	-10.51	-8.59	4.27
	538	22	1	-9.76	-8.59	4.27
	539	22	1	-9.01	-8.59	4.27
	540	22	1	-8.26	-8.59	4.27
	541	22	1	-7.51	-8.59	4.27
	542	22	1	-6.76	-8.59	4.27
	543	22	1	-6.01	-8.59	4.27
	544	22	1	-5.26	-8.59	4.27
	545	22	1	-4.51	-8.59	4.27
	546	22	1	-3.76	-8.59	4.27
	547	22	1	-3.01	-8.59	4.27
	548	22	1	-2.26	-8.59	4.27
	549	22	1	-1.51	-8.59	4.27
	550	22	1	-0.76	-8.59	4.27
	551	23	2	2.09	-21.54	-42.54
	552	23	1	2.84	-21.54	-42.54
	553	23	1	3.59	-21.54	-42.54
	554	23	1	4.34	-21.54	-42.54
	555	23	1	5.09	-21.54	-42.54
	556	23	1	5.84	-21.54	-42.54
	557	23	1	6.59	-21.54	-42.54
	558	23	1	7.34	-21.54	-42.54
	559	23	1	8.09	-21.54	-42.54
	560	23	1	8.84	-21.54	-42.54
	561	23	1	9.59	-21.54	-42.54
	562	23	1	10.34	-21.54	-42.54
	563	23	1	11.09	-21.54	-42.54
	564	23	1	11.84	-21.54	-42.54
	565	23	1	12.59	-21.54	-42.54
	566	23	1	13.34	-21.54	-42.54
	567	23	1	14.09	-21.54	-42.54
	568	23	1	14.84	-21.54	-42.54
	569	23	1	15.59	-21.54	-42.54
	570	23	1	16.34	-21.54	-42.54
	571	23	1	17.09	-21.54	-42.54
	572	23	1	17.84	-21.54	-42.54
	573	23	1	18.59	-21.54	-42.54
	574	23	1	19.34	-21.54	-42.54
	575	23	1	20.09	-21.54	-42.54
	576	24	2	0.89	29.21	-30.13
	577	24	1	1.64	29.21	-30.13
	578	24	1	2.39	29.21	-30.13
	579	24	1	3.14	29.21	-30.13
	580	24	1	3.89	29.21	-30.13
	581	24	1	4.64	29.21	-30.13
	582	24	1	5.39	29.21	-30.13
	583	24	1	6.14	29.21	-30.13
	584	24	1	6.89	29.21	-30.13
	585	24	1	7.64	29.21	-30.13
	586	24	1	8.39	29.21	-30.13
	587	24	1	9.14	29.21	-30.13
	588	24	1	9.89	29.21	-30.13
	589	24	1	10.64	29.21	-30.13
	590	24	1	11.39	29.21	-30.13
	591	24	1	12.14	29.21	-30.13
	592	24	1	12.89	29.21	-30.13
	593	24	1	13.64	29.21	-30.13
	594	24	1	14.39	29.21	-30.13
	595	24	1	15.14	29.21	-30.13
	596	24	1	15.89	29.21	-30.13
	597	24	1	16.64	29.21	-30.13
	598	24	1	17.39	29.21	-30.13
	599	24	1	18.14	29.21	-30.13
	600	24	1	18.89	29.21	-30.13
	601	25	2	2.62	-29.67	20.69
	602	25	1	3.37	-29.67	20.69
	603	25	1	4.12	-29.67	20.69
	604	25	1	4.87	-29.67	20.69
	605	25	1	5.62	-29.67	20.69
	606	25	1	6.37	-29.67	20.69
	607	25	1	7.12	-29.67	20.69
	608	25	1	7.87	-29.67	20.69
	609	25	1	8.62	-29.67	20.69
	610	25	1	9.37	-29.67	20.69
	611	25	1	10.12	-29.67	20.69
	612	25	1	10.87	-29.67	20.69
	613	25	1	11.62	-29.67	20.69
	614	25	1	12.37	-29.67	20.69
	615	25	1	13.12	-29.67	20.69
	616	25	1	13.87	-29.67	20.69
	617	25	1	14.62	-29.67	20.69
	618	25	1	15.37	-29.67	20.69
	619	25	1	16.12	-29.67	20.69
	620	25	1	16.87	-29.67	20.69
	621	25	1	17.62	-29.67	20.69
	622	25	1	18.37	-29.67	20.69
	623	25	1	19.12	-29.67	20.69
	624	25	1	19.87	-29.67	20.69
	625	25	1	20.62	-29.67	20.69
	626	26	2	0.85	13.74	-42.60
	627	26	1	1.60	13.74	-42.60
	628	26	1	2.35	13.74	-42.60
	629	26	1	3.10	13.74	-42.60
	630	26	1	3.85	13.74	-42.60
	631	26	1	4.60	13.74	-42.60
	632	26	1	5.35	13.74	-42.60
	633	26	1	6.10	13.74	-42.60
	634	26	1	6.85	13.74	-42.60
	635	26	1	7.60	13.74	-42.60
	636	26	1	8.35	13.74	-42.60
	637	26	1	9.10	13.74	-42.60
	638	26	1	9.85	13.74	-42.60
	639	26	1	10.60	13.74	-42.60
	640	26	1	11.35	13.74	-42.60
	641	26	1	12.10	13.74	-42.60
	642	26	1	12.85	13.74	-42.60
	643	26	1	13.60	13.74	-42.60
	644	26	1	14.35	13.74	-42.60
	645	26	1	15.10	13.74	-42.60
	646	26	1	15.85	13.74	-42.60
	647	26	1	16.60	13.74	-42.60
	648	26	1	17.35	13.74	-42.60
	649	26	1	18.10	13.74	-42.60
	650	26	1	18.85	13.74	-42.60
	651	27	2	-25.37	-8.49	36.31
	652	27	1	-24.62	-8.49	36.31
	653	27	1	-23.87	-8.49	36.31
	654	27	1	-23.12	-8.49	36.31
	655	27	1	-22.37	-8.49	36.31
	656	27	1	-21.62	-8.49	36.31
	657	27	1	-20.87	-8.49	36.31
	658	27	1	-20.12	-8.49	36.31
	659	27	1	-19.37	-8.49	36.31
	660	27	1	-18.62	-8.49	36.31
	661	27	1	-17.87	-8.49	36.31
	662	27	1	-17.12	-8.49	36.31
	663	27	1	-16.37	-8.49	36.31
	664	27	1	-15.62	-8.49	36.31
	665	27	1	-14.87	-8.49	36.31
	666	27	1	-14.12	-8.49	36.31
	667	27	1	-13.37	-8.49	36.31
	668	27	1	-12.62	-8.49	36.31
	669	27	1	-11.87	-8.49	36.31
	670	27	1	-11.12	-8.49	36.31
	671	27	1	-10.37	-8.49	36.31
	672	27	1	-9.62	-8.49	36.31
	673	27	1	-8.87	-8.49	36.31
	674	27	1	-8.12	-8.49	36.31
	675	27	1	-7.37	-8.49	36.31
	676	28	2	-16.76	7.40	-43.64
	677	28	1	-16.01	7.40	-43.64
	678	28	1	-15.26	7.40	-43.64
	679	28	1	-14.51	7.40	-43.64
	680	28	1	-13.76	7.40	-43.64
	681	28	1	-13.01	7.40	-43.64
	682	28	1	-12.26	7.40	-43.64
	683	28	1	-11.51	7.40	-43.64
	684	28	1	-10.76	7.40	-43.64
	685	28	1	-10.01	7.40	-43.64
	686	28	1	-9.26	7.40	-43.64
	687	28	1	-8.51	7.40	-43.64
	688	28	1	-7.76	7.40	-43.64
	689	28	1	-7.01	7.40	-43.64
	690	28	1	-6.26	7.40	-43.64
	691	28	1	-5.51	7.40	-43.64
	692	28	1	-4.76	7.40	-43.64
	693	28	1	-4.01	7.40	-43.64
	694	28	1	-3.26	7.40	-43.64
	695	28	1	-2.51	7.40	-43.64
	696	28	1	-1.76	7.40	-43.64
	697	28	1	-1.01	7.40	-43.64
	698	28	1	-0.26	7.40	-43.64
	699	28	1	0.49	7.40	-43.64
	700	28	1	1.24	7.40	-43.64
	701	29	2	-16.99	-11.34	22.96
	702	29	1	-16.24	-11.34	22.96
	703	29	1	-15.49	-11.34	22.96
	704	29	1	-14.74	-11.34	22.96
	705	29	1	-13.99	-11.34	22.96
	706	29	1	-13.24	-11.34	22.96
	707	29	1	-12.49	-11.34	22.96
	708	29	1	-11.74	-11.34	22.96
	709	29	1	-10.99	-11.34	22.96
	710	29	1	-10.24	-11.34	22.96
	711	29	1	-9.49	-11.34	22.96
	712	29	1	-8.74	-11.34	22.96
	713	29	1	-7.99	-11.34	22.96
	714	29	1	-7.24	-11.34	22.96
	715	29	1	-6.49	-11.34	22.96
	716	29	1	-5.74	-11.34	22.96
	717	29	1	-4.99	-11.34	22.96
	718	29	1	-4.24	-11.34	22.96
	719	29	1	-3.49	-11.34	22.96
	720	29	1	-2.74	-11.34	22.96
	721	29	1	-1.99	-11.34	22.96
	722	29	1	-1.24	-11.34	22.96
	723	29	1	-0.49	-11.34	22.96
	724	29	1	0.26	-11.34	22.96
	725	29	1	1.01	-11.34	22.96
	726	30	2	5.49	8.25	-2.78
	727	30	1	6.24	8.25	-2.78
	728	30	1	6.99	8.25	-2.78
	729	30	1	7.74	8.25	-2.78
	730	30	1	8.49	8.25	-2.78
	731	30	1	9.24	8.25	-2.78
	732	30	1	9.99	8.25	-2.78
	733	30	1	10.74	8.25	-2.78
	734	30	1	11.49	8.25	-2.78
	735	30	1	12.24	8.25	-2.78
	736	30	1	12.99	8.25	-2.78
	737	30	1	13.74	8.25	-2.78
	738	30	1	14.49	8.25	-2.78
	739	30	1	15.24	8.25	-2.78
	740	30	1	15.99	8.25	-2.78
	741	30	1	16.74	8.25	-2.78
	742	30	1	17.49	8.25	-2.78
	743	30	1	18.24	8.25	-2.78
	744	30	1	18.99	8.25	-2.78
	745	30	1	19.74	8.25	-2.78
	746	30	1	20.49	8.25	-2.78
	747	30	1	21.24	8.25	-2.78
	748	30	1	21.99	8.25	-2.78
	749	30	1	22.74	8.25	-2.78
	750	30	1	23.49	8.25	-2.78
	751	31	2	-1.47	-22.82	26.08
	752	31	1	-0.72	-22.82	26.08
	753	31	1	0.03	-22.82	26.08
	754	31	1	0.78	-22.82	26.08
	755	31	1	1.53	-22.82	26.08
	756	31	1	2.28	-22.82	26.08
	757	31	1	3.03	-22.82	26.08
	758	31	1	3.78	-22.82	26.08
	759	31	1	4.53	-22.82	26.08
	760	31	1	5.28	-22.82	26.08
	761	31	1	6.03	-22.82	26.08
	762	31	1	6.78	-22.82	26.08
	763	31	1	7.53	-22.82	26.08
	764	31	1	8.28	-22.82	26.08
	765	31	1	9.03	-22.82	26.08
	766	31	1	9.78	-22.82	26.08
	767	31	1	10.53	-22.82	26.08
	768	31	1	11.28	-22.82	26.08
	769	31	1	12.03	-22.82	26.08
	770	31	1	12.78	-22.82	26.08
	771	31	1	13.53	-22.82	26.08
	772	31	1	14.28	-22.82	26.08
	773	31	1	15.03	-22.82	26.08
	774	31	1	15.78	-22.82	26.08
	775	31	1	16.53	-22.82	26.08
	776	32	2	0.84	3.68	-0.62
	777	32	1	1.59	3.68	-0.62
	778	32	1	2.34	3.68	-0.62
	779	32	1	3.09	3.68	-0.62
	780	32	1	3.84	3.68	-0.62
	781	32	1	4.59	3.68	-0.62
	782	32	1	5.34	3.68	-0.62
	783	32	1	6.09	3.68	-0.62
	784	32	1	6.84	3.68	-0.62
	785	32	1	7.59	3.68	-0.62
	786	32	1	8.34	3.68	-0.62
	787	32	1	9.09	3.68	-0.62
	788	32	1	9.84	3.68	-0.62
	789	32	1	10.59	3.68	-0.62
	790	32	1	11.34	3.68	-0.62
	791	32	1	12.09	3.68	-0.62
	792	32	1	12.84	3.68	-0.62
	793	32	1	13.59	3.68	-0.62
	794	32	1	14.34	3.68	-0.62
	795	32	1	15.09	3.68	-0.62
	796	32	1	15.84	3.68	-0.62
	797	32	1	16.59	3.68	-0.62
	798	32	1	17.34	3.68	-0.62
	799	32	1	18.09	3.68	-0.62
	800	32	1	18.84	3.68	-0.62
	801	33	2	-12.90	1.36	-47.46
	802	33	1	-12.15	1.36	-47.46
	803	33	1	-11.40	1.36	-47.46
	804	33	1	-10.65	1.36	-47.46
	805	33	1	-9.90	1.36	-47.46
	806	33	1	-9.15	1.36	-47.46
	807	33	1	-8.40	1.36	-47.46
	808	33	1	-7.65	1.36	-47.46
	809	33	1	-6.90	1.36	-47.46
	810	33	1	-6.15	1.36	-47.46
	811	33	1	-5.40	1.36	-47.46
	812	33	1	-4.65	1.36	-47.46
	813	33	1	-3.90	1.36	-47.46
	814	33	1	-3.15	1.36	-47.46
	815	33	1	-2.40	1.36	-47.46
	816	33	1	-1.65	1.36	-47.46
	817	33	1	-0.90	1.36	-47.46
	818	33	1	-0.15	1.36	-47.46
	819	33	1	0.60	1.36	-47.46
	820	33	1	1.35	1.36	-47.46
	821	33	1	2.10	1.36	-47.46
	822	33	1	2.85	1.36	-47.46
	823	33	1	3.60	1.36	-47.46
	824	33	1	4.35	1.36	-47.46
	825	33	1	5.10	1.36	-47.46
	826	34	2	-28.74	-23.53	13.64
	827	34	1	-27.99	-23.53	13.64
	828	34	1	-27.24	-23.53	13.64
	829	34	1	-26.49	-23.53	13.64
	830	34	1	-25.74	-23.53	13.64
	831	34	1	-24.99	-23.53	13.64
	832	34	1	-24.24	-23.53	13.64
	833	34	1	-23.49	-23.53	13.64
	834	34	1	-22.74	-23.53	13.64
	835	34	1	-21.99	-23.53	13.64
	836	34	1	-21.24	-23.53	13.64
	837	34	1	-20.49	-23.53	13.64
	838	34	1	-19.74	-23.53	13.64
	839	34	1	-18.99	-23.53	13.64
	840	34	1	-18.24	-23.53	13.64
	841	34	1	-17.49	-23.53	13.64
	842	34	1	-16.74	-23.53	13.64
	843	34	1	-15.99	-23.53	13.64
	844	34	1	-15.24	-23.53	13.64
	845	34	1	-14.49	-23.53	13.64
	846	34	1	-13.74	-23.53	13.64
	847	34	1	-12.99	-23.53	13.64
	848	34	1	-12.24	-23.53	13.64
	849	34	1	-11.49	-23.53	13.64
	850	34	1	-10.74	-23.53	13.64
	851	35	2	-9.66	-11.14	40.76
	852	35	1	-8.91	-11.14	40.76
	853	35	1	-8.16	-11.14	40.76
	854	35	1	-7.41	-11.14	40.76
	855	35	1	-6.66	-11.14	40.76
	856	35	1	-5.91	-11.14	40.76
	857	35	1	-5.16	-11.14	40.76
	858	35	1	-4.41	-11.14	40.76
	859	35	1	-3.66	-11.14	40.76
	860	35	1	-2.91	-11.14	40.76
	861	35	1	-2.16	-11.14	40.76
	862	35	1	-1.41	-11.14	40.76
	863	35	1	-0.66	-11.14	40.76
	864	35	1	0.09	-11.14	40.76
	865	35	1	0.84	-11.14	40.76
	866	35	1	1.59	-11.14	40.76
	867	35	1	2.34	-11.14	40.76
	868	35	1	3.09	-11.14	40.76
	869	35	1	3.84	-11.14	40.76
	870	35	1	4.59	-11.14	40.76
	871	35	1	5.34	-11.14	40.76
	872	35	1	6.09	-11.14	40.76
	873	35	1	6.84	-11.14	40.76
	874	35	1	7.59	-11.14	40.76
	875	35	1	8.34	-11.14	40.76
	876	36	2	-13.58	-15.04	25.56
	877	36	1	-12.83	-15.04	25.56
	878	36	1	-12.08	-15.04	25.56
	879	36	1	-11.33	-15.04	25.56
	880	36	1	-10.58	-15.04	25.56
	881	36	1	-9.83	-15.04	25.56
	882	36	1	-9.08	-15.04	25.56
	883	36	1	-8.33	-15.04	25.56
	884	36	1	-7.58	-15.04	25.56
	885	36	1	-6.83	-15.04	25.56
	886	36	1	-6.08	-15.04	25.56
	887	36	1	-5.33	-15.04	25.56
	888	36	1	-4.58	-15.04	25.56
	889	36	1	-3.83	-15.04	25.56
	890	36	1	-3.08	-15.04	25.56
	891	36	1	-2.33	-15.04	25.56
	892	36	1	-1.58	-15.04	25.56
	893	36	1	-0.83	-15.04	25.56
	894	36	1	-0.08	-15.04	25.56
	895	36	1	0.67	-15.04	25.56
	896	36	1	1.42	-15.04	25.56
	897	36	1	2.17	-15.04	25.56
	898	36	1	2.92	-15.04	25.56
	899	36	1	3.67	-15.04	25.56
	900	36	1	4.42	-15.04	25.56
	901	37	2	-26.92	-16.27	-21.02
	902	37	1	-26.17	-16.27	-21.02
	903	37	1	-25.42	-16.27	-21.02
	904	37	1	-24.67	-16.27	-21.02
	905	37	1	-23.92	-16.27	-21.02
	906	37	1	-23.17	-16.27	-21.02
	907	37	1	-22.42	-16.27	-21.02
	908	37	1	-21.67	-16.27	-21.02
	909	37	1	-20.92	-16.27	-21.02
	910	37	1	-20.17	-16.27	-21.02
	911	37	1	-19.42	-16.27	-21.02
	912	37	1	-18.67	-16.27	-21.02
	913	37	1	-17.92	-16.27	-21.02
	914	37	1	-17.17	-16.27	-21.02
	915	37	1	-16.42	-16.27	-21.02
	916	37	1	-15.67	-16.27	-21.02
	917	37	1	-14.92	-16.27	-21.02
	918	37	1	-14.17	-16.27	-21.02
	919	37	1	-13.42	-16.27	-21.02
	920	37	1	-12.67	-16.27	-21.02
	921	37	1	-11.92	-16.27	-21.02
	922	37	1	-11.17	-16.27	-21.02
	923	37	1	-10.42	-16.27	-21.02
	924	37	1	-9.67	-16.27	-21.02
	925	37	1	-8.92	-16.27	-21.02
	926	38	2	7.19	-20.33	30.81
	927	38	1	7.94	-20.33	30.81
	928	38	1	8.69	-20.33	30.81
	929	38	1	9.44	-20.33	30.81
	930	38	1	10.19	-20.33	30.81
	931	38	1	10.94	-20.33	30.81
	932	38	1	11.69	-20.33	30.81
	933	38	1	12.44	-20.33	30.81
	934	38	1	13.19	-20.33	30.81
	935	38	1	13.94	-20.33	30.81
	936	38	1	14.69	-20.33	30.81
	937	38	1	15.44	-20.33	30.81
	938	38	1	16.19	-20.33	30.81
	939	38	1	16.94	-20.33	30.81
	940	38	1	17.69	-20.33	30.81
	941	38	1	18.44	-20.33	30.81
	942	38	1	19.19	-20.33	30.81
	943	38	1	19.94	-20.33	30.81
	944	38	1	20.69	-20.33	30.81
	945	38	1	21.44	-20.33	30.81
	946	38	1	22.19	-20.33	30.81
	947	38	1	22.94	-20.33	30.81
	948	38	1	23.69	-20.33	30.81
	949	38	1	24.44	-20.33	30.81
	950	38	1	25.19	-20.33	30.81
	951	39	2	4.86	8.00	30.37
	952	39	1	5.61	8.00	30.37
	953	39	1	6.36	8.00	30.37
	954	39	1	7.11	8.00	30.37
	955	39	1	7.86	8.00	30.37
	956	39	1	8.61	8.00	30.37
	957	39	1	9.36	8.00	30.37
	958	39	1	10.11	8.00	30.37
	959	39	1	10.86	8.00	30.37
	960	39	1	11.61	8.00	30.37
	961	39	1	12.36	8.00	30.37
	962	39	1	13.11	8.00	30.37
	963	39	1	13.86	8.00	30.37
	964	39	1	14.61	8.00	30.37
	965	39	1	15.36	8.00	30.37
	966	39	1	16.11	8.00	30.37
	967	39	1	16.86	8.00	30.37
	968	39	1	17.61	8.00	30.37
	969	39	1	18.36	8.00	30.37
	970	39	1	19.11	8.00	30.37
	971	39	1	19.86	8.00	30.37
	972	39	1	20.61	8.00	30.37
	973	39	1	21.36	8.00	30.37
	974	39	1	22.11	8.00	30.37
	975	39	1	22.86	8.00	30.37
	976	40	2	5.70	-18.81	3.93
	977	40	1	6.45	-18.81	3.93
	978	40	1	7.20	-18.81	3.93
	979	40	1	7.95	-18.81	3.93
	980	40	1	8.70	-18.81	3.93
	981	40	1	9.45	-18.81	3.93
	982	40	1	10.20	-18.81	3.93
	983	40	1	10.95	-18.81	3.93
	984	40	1	11.70	-18.81	3.93
	985	40	1	12.45	-18.81	3.93
	986	40	1	13.20	-18.81	3.93
	987	40	1	13.95	-18.81	3.93
	988	40	1	14.70	-18.81	3.93
	989	40	1	15.45	-18.81	3.93
	990	40	1	16.20	-18.81	3.93
	991	40	1	16.95	-18.81	3.93
	992	40	1	17.70	-18.81	3.93
	993	40	1	18.45	-18.81	3.93
	994	40	1	19.20	-18.81	3.93
	995	40	1	19.95	-18.81	3.93
	996	40	1	20.70	-18.81	3.93
	997	40	1	21.45	-18.81	3.93
	998	40	1	22.20	-18.81	3.93
	999	40	1	22.95	-18.81	3.93
	1000	40	1	23.70	-18.81	3.93
	1001	41	2	5.84	18.45	-18.20
	1002	41	1	6.59	18.45	-18.20
	1003	41	1	7.34	18.45	-18.20
	1004	41	1	8.09	18.45	-18.20
	1005	41	1	8.84	18.45	-18.20
	1006	41	1	9.59	18.45	-18.20
	1007	41	1	10.34	18.45	-18.20
	1008	41	1	11.09	18.45	-18.20
	1009	41	1	11.84	18.45	-18.20
	1010	41	1	12.59	18.45	-18.20
	1011	41	1	13.34	18.45	-18.20
	1012	41	1	14.09	18.45	-18.20
	1013	41	1	14.84	18.45	-18.20
	1014	41	1	15.59	18.45	-18.20
	1015	41	1	16.34	18.45	-18.20
	1016	41	1	17.09	18.45	-18.20
	1017	41	1	17.84	18.45	-18.20
	1018	41	1	18.59	18.45	-18.20
	1019	41	1	19.34	18.45	-18.20
	1020	41	1	20.09	18.45	-18.20
	1021	41	1	20.84	18.45	-18.20
	1022	41	1	21.59	18.45	-18.20
	1023	41	1	22.34	18.45	-18.20
	1024	41	1	23.09	18.45	-18.20
	1025	41	1	23.84	18.45	-18.20
	1026	42	2	-20.88	-23.40	-7.29
	1027	42	1	-20.13	-23.40	-7.29
	1028	42	1	-19.38	-23.40	-7.29
	1029	42	1	-18.63	-23.40	-7.29
	1030	42	1	-17.88	-23.40	-7.29
	1031	42	1	-17.13	-23.40	-7.29
	1032	42	1	-16.38	-23.40	-7.29
	1033	42	1	-15.63	-23.40	-7.29
	1034	42	1	-14.88	-23.40	-7.29
	1035	42	1	-14.13	-23.40	-7.29
	1036	42	1	-13.38	-23.40	-7.29
	1037	42	1	-12.63	-23.40	-7.29
	1038	42	1	-11.88	-23.40	-7.29
	1039	42	1	-11.13	-23.40	-7.29
	1040	42	1	-10.38	-23.40	-7.29
	1041	42	1	-9.63	-23.40	-7.29
	1042	42	1	-8.88	-23.40	-7.29
	1043	42	1	-8.13	-23.40	-7.29
	1044	42	1	-7.38	-23.40	-7.29
	1045	42	1	-6.63	-23.40	-7.29
	1046	42	1	-5.88	-23.40	-7.29
	1047	42	1	-5.13	-23.40	-7.29
	1048	42	1	-4.38	-23.40	-7.29
	1049	42	1	-3.63	-23.40	-7.29
	1050	42	1	-2.88	-23.40	-7.29
	1051	43	2	4.43	19.08	-49.30
	1052	43	1	5.18	19.08	-49.30
	1053	43	1	5.93	19.08	-49.30
	1054	43	1	6.68	19.08	-49.30